PROCAR new format
# of k-points:    1         # of bands:  21         # of ions:   3

 k-point    1 :    0.00000000 0.00000000 0.00000000     weight = 1.00000000

band     1 # energy   -9.74465092 # occ.  1.00000000
 
ion      s      p      d    tot
    1  0.0351540502  0.0067523741  0.1582000456  0.2001064699
    2  0.0783386993  0.0000000000  0.3309551487  0.4092938481
    3  0.0351519201  0.0067519897  0.1581859315  0.2000898413
tot    0.1486446696  0.0135043639  0.6473411258  0.8094901593
 
band     2 # energy   -8.23821450 # occ.  1.00000000
 
ion      s      p      d    tot
    1  0.0000000000  0.0007057891  0.2332044274  0.2339102165
    2  0.0000000000  0.0000000000  0.3735022142  0.3735022142
    3  0.0000000000  0.0007057294  0.2331702618  0.2338759912
tot    0.0000000000  0.0014115186  0.8398769034  0.8412884219
 
band     3 # energy   -8.23821450 # occ.  1.00000000
 
ion      s      p      d    tot
    1  0.0000000000  0.0007057891  0.2332044230  0.2339102121
    2  0.0000000000  0.0000000000  0.3735022141  0.3735022141
    3  0.0000000000  0.0007057294  0.2331702663  0.2338759957
tot    0.0000000000  0.0014115186  0.8398769034  0.8412884219
 
band     4 # energy   -7.73661814 # occ.  1.00000000
 
ion      s      p      d    tot
    1  0.0092798568  0.0002456953  0.4122760006  0.4218015527
    2  0.0000000000  0.0282386863  0.0000000000  0.0282386863
    3  0.0092816787  0.0002457655  0.4122879633  0.4218154076
tot    0.0185615356  0.0287301471  0.8245639639  0.8718556466
 
band     5 # energy   -7.47060007 # occ.  1.00000000
 
ion      s      p      d    tot
    1  0.0000000000  0.0000094782  0.4296684911  0.4296779693
    2  0.0000000000  0.0041385984  0.0000000002  0.0041385986
    3  0.0000000000  0.0000094849  0.4297072314  0.4297167163
tot    0.0000000000  0.0041575615  0.8593757227  0.8635332841
 
band     6 # energy   -7.47060007 # occ.  1.00000000
 
ion      s      p      d    tot
    1  0.0000000000  0.0000094782  0.4296684998  0.4296779780
    2  0.0000000000  0.0041385984  0.0000000002  0.0041385986
    3  0.0000000000  0.0000094849  0.4297072225  0.4297167074
tot    0.0000000000  0.0041575615  0.8593757225  0.8635332840
 
band     7 # energy   -7.27578240 # occ.  1.00000000
 
ion      s      p      d    tot
    1  0.0000000000  0.0000000000  0.3839852070  0.3839852070
    2  0.0000000000  0.0000000000  0.0962561966  0.0962561966
    3  0.0000000000  0.0000000000  0.3837300703  0.3837300703
tot    0.0000000000  0.0000000000  0.8639714738  0.8639714738
 
band     8 # energy   -7.27455328 # occ.  1.00000000
 
ion      s      p      d    tot
    1  0.0000000000  0.0000000000  0.3838447148  0.3838447148
    2  0.0000000000  0.0000000000  0.0964510482  0.0964510482
    3  0.0000000000  0.0000000000  0.3835880884  0.3835880884
tot    0.0000000000  0.0000000000  0.8638838514  0.8638838514
 
band     9 # energy   -7.20584321 # occ.  1.00000000
 
ion      s      p      d    tot
    1  0.0000000000  0.0000000000  0.4367675825  0.4367675825
    2  0.0000000000  0.0000000000  0.0000000023  0.0000000023
    3  0.0000000000  0.0000000000  0.4370230573  0.4370230573
tot    0.0000000000  0.0000000000  0.8737906420  0.8737906420
 
band    10 # energy   -7.20488487 # occ.  1.00000000
 
ion      s      p      d    tot
    1  0.0000000000  0.0000000000  0.4367323843  0.4367323843
    2  0.0000000000  0.0000000000  0.0000000023  0.0000000023
    3  0.0000000000  0.0000000000  0.4369893019  0.4369893019
tot    0.0000000000  0.0000000000  0.8737216886  0.8737216886
 
band    11 # energy   -6.86458899 # occ.  1.00000000
 
ion      s      p      d    tot
    1  0.0911538408  0.0011660521  0.1391621707  0.2314820636
    2  0.0739848562  0.0000000000  0.0131161404  0.0871009966
    3  0.0911457811  0.0011660051  0.1391657365  0.2314775227
tot    0.2562844782  0.0023320572  0.2914440476  0.5500605830
 
band    12 # energy   -6.64011241 # occ.  1.00000000
 
ion      s      p      d    tot
    1  0.0000000000  0.0000000000  0.0534211681  0.0534211681
    2  0.0000000000  0.0000000000  0.7788196725  0.7788196725
    3  0.0000000000  0.0000000000  0.0534205406  0.0534205406
tot    0.0000000000  0.0000000000  0.8856613812  0.8856613812
 
band    13 # energy   -6.63887031 # occ.  1.00000000
 
ion      s      p      d    tot
    1  0.0000000000  0.0000000000  0.0535273925  0.0535273925
    2  0.0000000000  0.0000000000  0.7785946123  0.7785946123
    3  0.0000000000  0.0000000000  0.0535267941  0.0535267941
tot    0.0000000000  0.0000000000  0.8856487989  0.8856487989
 
band    14 # energy   -6.25084071 # occ.  1.00000000
 
ion      s      p      d    tot
    1  0.1850741713  0.0001165518  0.0212008652  0.2063915884
    2  0.0000000000  0.0205852580  0.0000000736  0.0205853317
    3  0.1850817930  0.0001165759  0.0212032014  0.2064015704
tot    0.3701559643  0.0208183858  0.0424041403  0.4333784904
 
band    15 # energy   -6.25065510 # occ.  1.00000000
 
ion      s      p      d    tot
    1  0.0000000045  0.0019799293  0.2070792775  0.2090592113
    2  0.0000000000  0.0000000005  0.4885649055  0.4885649060
    3  0.0000000045  0.0019798119  0.2070745073  0.2090543237
tot    0.0000000090  0.0039597417  0.9027186903  0.9066784411
 
band    16 # energy   -6.25065510 # occ.  1.00000000
 
ion      s      p      d    tot
    1  0.0000000234  0.0019799292  0.2070792619  0.2090592144
    2  0.0000000000  0.0000000026  0.4885648557  0.4885648583
    3  0.0000000234  0.0019798117  0.2070744848  0.2090543199
tot    0.0000000468  0.0039597435  0.9027186024  0.9066783927
 
band    17 # energy   -6.19734910 # occ.  1.00000000
 
ion      s      p      d    tot
    1  0.0009781915  0.0006906697  0.1079419069  0.1096107681
    2  0.0913730608  0.0000000000  0.4819435468  0.5733166076
    3  0.0009782232  0.0006906249  0.1079381089  0.1096069571
tot    0.0933294756  0.0013812947  0.6978235626  0.7925343329
 
band    18 # energy   -3.55990393 # occ.  0.00000000
 
ion      s      p      d    tot
    1  0.0564122921  0.0364546772  0.0277633894  0.1206303587
    2  0.1202862896  0.0000000000  0.0309415659  0.1512278555
    3  0.0564124038  0.0364540559  0.0277631668  0.1206296266
tot    0.2331109855  0.0729087331  0.0864681221  0.3924878407
 
band    19 # energy   -1.57344296 # occ.  0.00000000
 
ion      s      p      d    tot
    1  0.0000000000  0.0356026108  0.0031870185  0.0387896293
    2  0.0000000000  0.0428688986  0.0000000000  0.0428688986
    3  0.0000000000  0.0356013338  0.0031870790  0.0387884128
tot    0.0000000000  0.1140728431  0.0063740975  0.1204469407
 
band    20 # energy   -1.57344288 # occ.  0.00000000
 
ion      s      p      d    tot
    1  0.0000000000  0.0356026155  0.0031870189  0.0387896344
    2  0.0000000000  0.0428689048  0.0000000000  0.0428689048
    3  0.0000000000  0.0356013381  0.0031870796  0.0387884177
tot    0.0000000000  0.1140728584  0.0063740985  0.1204469569
 
band    21 # energy   -1.03467296 # occ.  0.00000000
 
ion      s      p      d    tot
    1  0.0005316262  0.0619648029  0.0003647002  0.0628611293
    2  0.0000000000  0.0638179738  0.0000000000  0.0638179738
    3  0.0005318113  0.0619642169  0.0003646068  0.0628606350
tot    0.0010634375  0.1877469935  0.0007293071  0.1895397381
 
# of k-points:    1         # of bands:  21         # of ions:   3

 k-point    1 :    0.00000000 0.00000000 0.00000000     weight = 1.00000000

band     1 # energy   -9.65213497 # occ.  1.00000000
 
ion      s      p      d    tot
    1  0.0335074458  0.0066685647  0.1608630135  0.2010390241
    2  0.0766568117  0.0000000000  0.3366364795  0.4132932913
    3  0.0335053185  0.0066681779  0.1608488009  0.2010222973
tot    0.1436695761  0.0133367427  0.6583482939  0.8153546127
 
band     2 # energy   -8.14999615 # occ.  1.00000000
 
ion      s      p      d    tot
    1  0.0000000000  0.0007100832  0.2243107219  0.2250208050
    2  0.0000000000  0.0000000000  0.3938231557  0.3938231557
    3  0.0000000000  0.0007100217  0.2242793518  0.2249893735
tot    0.0000000000  0.0014201048  0.8424132294  0.8438333342
 
band     3 # energy   -8.14999615 # occ.  1.00000000
 
ion      s      p      d    tot
    1  0.0000000000  0.0007100832  0.2243107205  0.2250208037
    2  0.0000000000  0.0000000000  0.3938231557  0.3938231557
    3  0.0000000000  0.0007100217  0.2242793532  0.2249893748
tot    0.0000000000  0.0014201048  0.8424132294  0.8438333342
 
band     4 # energy   -7.63782309 # occ.  1.00000000
 
ion      s      p      d    tot
    1  0.0109261814  0.0002520323  0.4099508564  0.4211290701
    2  0.0000000000  0.0288100303  0.0000000000  0.0288100303
    3  0.0109277146  0.0002520966  0.4099665305  0.4211463418
tot    0.0218538961  0.0293141592  0.8199173869  0.8710854422
 
band     5 # energy   -7.34919956 # occ.  1.00000000
 
ion      s      p      d    tot
    1  0.0000000000  0.0000102023  0.4312892908  0.4312994931
    2  0.0000000000  0.0041085011  0.0000000002  0.0041085013
    3  0.0000000000  0.0000102085  0.4313259289  0.4313361374
tot    0.0000000000  0.0041289119  0.8626152199  0.8667441318
 
band     6 # energy   -7.34919956 # occ.  1.00000000
 
ion      s      p      d    tot
    1  0.0000000000  0.0000102023  0.4312892972  0.4312994995
    2  0.0000000000  0.0041085011  0.0000000002  0.0041085013
    3  0.0000000000  0.0000102085  0.4313259225  0.4313361310
tot    0.0000000000  0.0041289119  0.8626152199  0.8667441318
 
band     7 # energy   -7.11184965 # occ.  1.00000000
 
ion      s      p      d    tot
    1  0.0000000000  0.0000000000  0.3525148530  0.3525148530
    2  0.0000000000  0.0000000000  0.1602255670  0.1602255670
    3  0.0000000000  0.0000000000  0.3523731401  0.3523731401
tot    0.0000000000  0.0000000000  0.8651135601  0.8651135601
 
band     8 # energy   -7.11029812 # occ.  1.00000000
 
ion      s      p      d    tot
    1  0.0000000000  0.0000000000  0.3521919007  0.3521919007
    2  0.0000000000  0.0000000000  0.1607657881  0.1607657881
    3  0.0000000000  0.0000000000  0.3520516521  0.3520516521
tot    0.0000000000  0.0000000000  0.8650093409  0.8650093409
 
band     9 # energy   -7.01848747 # occ.  1.00000000
 
ion      s      p      d    tot
    1  0.0000000000  0.0000000000  0.4388000111  0.4388000111
    2  0.0000000000  0.0000000000  0.0000000012  0.0000000012
    3  0.0000000000  0.0000000000  0.4389426691  0.4389426691
tot    0.0000000000  0.0000000000  0.8777426814  0.8777426814
 
band    10 # energy   -7.01710487 # occ.  1.00000000
 
ion      s      p      d    tot
    1  0.0000000000  0.0000000000  0.4387663983  0.4387663983
    2  0.0000000000  0.0000000000  0.0000000012  0.0000000012
    3  0.0000000000  0.0000000000  0.4389076467  0.4389076467
tot    0.0000000000  0.0000000000  0.8776740461  0.8776740461
 
band    11 # energy   -6.60926392 # occ.  1.00000000
 
ion      s      p      d    tot
    1  0.0830430505  0.0013283522  0.1089247655  0.1932961682
    2  0.1058407836  0.0000000000  0.0346201669  0.1404609504
    3  0.0830381849  0.0013283101  0.1089266233  0.1932931183
tot    0.2719220189  0.0026566623  0.2524715557  0.5270502369
 
band    12 # energy   -6.60220579 # occ.  1.00000000
 
ion      s      p      d    tot
    1  0.0000000000  0.0000000000  0.0867935135  0.0867935135
    2  0.0000000000  0.0000000000  0.7151900469  0.7151900469
    3  0.0000000000  0.0000000000  0.0867923435  0.0867923435
tot    0.0000000000  0.0000000000  0.8887759038  0.8887759038
 
band    13 # energy   -6.60078787 # occ.  1.00000000
 
ion      s      p      d    tot
    1  0.0000000000  0.0000000000  0.0870808393  0.0870808393
    2  0.0000000000  0.0000000000  0.7146159402  0.7146159402
    3  0.0000000000  0.0000000000  0.0870796276  0.0870796276
tot    0.0000000000  0.0000000000  0.8887764072  0.8887764072
 
band    14 # energy   -6.18944116 # occ.  0.99370636
 
ion      s      p      d    tot
    1  0.0000000000  0.0017329792  0.2175540949  0.2192870741
    2  0.0000000000  0.0000000000  0.4713303750  0.4713303750
    3  0.0000000000  0.0017328838  0.2175487085  0.2192815923
tot    0.0000000000  0.0034658630  0.9064331784  0.9098990414
 
band    15 # energy   -6.18944116 # occ.  0.99370636
 
ion      s      p      d    tot
    1  0.0000000000  0.0017329792  0.2175540975  0.2192870768
    2  0.0000000000  0.0000000000  0.4713303751  0.4713303751
    3  0.0000000000  0.0017328838  0.2175487057  0.2192815894
tot    0.0000000000  0.0034658630  0.9064331784  0.9098990413
 
band    16 # energy   -6.13821968 # occ.  0.96170772
 
ion      s      p      d    tot
    1  0.0042537007  0.0010024562  0.1416111853  0.1468673422
    2  0.0685931168  0.0000000000  0.4564282674  0.5250213841
    3  0.0042540610  0.0010024041  0.1416073106  0.1468637757
tot    0.0771008785  0.0020048603  0.7396467633  0.8187525020
 
band    17 # energy   -5.89729135 # occ.  0.05087956
 
ion      s      p      d    tot
    1  0.1826630965  0.0001298492  0.0248569418  0.2076498876
    2  0.0000000000  0.0205561450  0.0000000000  0.0205561450
    3  0.1826678789  0.0001298590  0.0248574510  0.2076551890
tot    0.3653309754  0.0208158533  0.0497143929  0.4358612216
 
band    18 # energy   -3.37154431 # occ.  0.00000000
 
ion      s      p      d    tot
    1  0.0618526234  0.0350087902  0.0236754423  0.1205368559
    2  0.1159546662  0.0000000000  0.0308527967  0.1468074629
    3  0.0618525205  0.0350083836  0.0236753040  0.1205362081
tot    0.2396598101  0.0700171738  0.0782035430  0.3878805268
 
band    19 # energy   -1.37760737 # occ.  0.00000000
 
ion      s      p      d    tot
    1  0.0000000000  0.0319418174  0.0035919759  0.0355337934
    2  0.0000000000  0.0466504939  0.0000000000  0.0466504940
    3  0.0000000000  0.0319374880  0.0035921726  0.0355296606
tot    0.0000000000  0.1105297994  0.0071841486  0.1177139480
 
band    20 # energy   -1.37760728 # occ.  0.00000000
 
ion      s      p      d    tot
    1  0.0000000000  0.0319418223  0.0035919766  0.0355337989
    2  0.0000000000  0.0466505024  0.0000000000  0.0466505024
    3  0.0000000000  0.0319374920  0.0035921734  0.0355296654
tot    0.0000000000  0.1105298167  0.0071841500  0.1177139667
 
band    21 # energy   -0.82946920 # occ.  0.00000000
 
ion      s      p      d    tot
    1  0.0005315858  0.0610080425  0.0003788173  0.0619184455
    2  0.0000000000  0.0643386148  0.0000000000  0.0643386149
    3  0.0005314981  0.0610071187  0.0003787130  0.0619173298
tot    0.0010630839  0.1863537760  0.0007575303  0.1881743902
 
